/*--------------------------------*- C++ -*----------------------------------*\
  =========                 |
  \\      /  F ield         | OpenFOAM: The Open Source CFD Toolbox
   \\    /   O peration     | Website:  https://openfoam.org
    \\  /    A nd           | Version:  9
     \\/     M anipulation  |
\*---------------------------------------------------------------------------*/
FoamFile
{
    format      ascii;
    class       volScalarField;
    location    "0";
    object      yPlus;
}
// * * * * * * * * * * * * * * * * * * * * * * * * * * * * * * * * * * * * * //

dimensions      [0 0 0 0 0 0 0];

internalField   uniform 0;

boundaryField
{
    frontAndBack
    {
        type            empty;
    }
    farfield
    {
        type            calculated;
        value           uniform 0;
    }
    airfoil
    {
        type            calculated;
        value           nonuniform List<scalar> 
172
(
135.794
135.683
135.466
135.255
135.647
135.777
135.602
135.419
135.289
135.208
135.177
135.197
135.276
135.454
135.476
135.308
135.193
135.163
135.214
135.319
135.428
135.582
135.573
135.434
135.364
135.362
135.422
135.536
135.655
135.625
135.527
135.504
135.558
135.675
135.795
135.764
135.648
135.611
135.65
135.709
135.764
135.746
135.805
136.014
135.879
135.951
135.998
135.899
135.875
135.927
128.597
131.292
134.027
136.284
132.839
121.059
123.157
125.944
127.264
129.24
130.769
131.046
131.192
131.544
132.011
131.359
130.717
131.395
131.256
131.039
131.077
131.314
131.425
131.494
131.821
132.373
132.838
133.241
133.865
134.637
135.442
108.371
110.39
107.116
96.0564
81.212
85.4679
92.5788
99.9031
107.461
114.385
119.6
122.771
125.057
126.9
127.091
126.973
128.136
128.539
128.881
129.184
129.43
129.749
130.166
130.589
131.028
131.613
132.293
132.984
133.744
134.618
135.566
135.618
135.713
135.693
135.576
135.427
135.793
135.732
135.677
135.645
135.628
135.625
135.635
135.656
135.692
135.738
135.754
135.754
135.751
135.759
135.771
135.776
135.775
135.768
135.759
135.757
135.763
135.777
135.797
135.822
135.851
135.882
135.91
135.911
135.909
135.909
135.922
135.955
135.995
136.029
136.051
136.049
136.034
136.021
136.041
136.074
136.094
136.094
136.047
135.989
135.986
136.044
136.127
136.26
136.002
136.082
136.299
136.113
136.012
136.032
136.077
)
;
    }
}


// ************************************************************************* //
